# 1-Command to force users to change their passwords every 30 or 90 days
# 2- command to protect against DDOS attacks
# Forces a 7-day wait between password changes — can frustrate users who just want to change a password freely.
